variables="x","cp"
Zone T="phase=   4.20"
  0.658999979 -0.603860021
  0.68900001 -0.280800015
  0.712000012 -0.373750001
  0.734000027 -0.48684001
  0.754999995 -0.666090012
  0.777999997 -0.751869977
  0.800999999 -0.767369986
  0.823000014 -0.678820014
  0.843999982 -0.518719971
  0.865999997 -0.338889986
  0.888999999 -0.192860007
  0.911000013 -0.139139995
  0.962000012 -0.119120002
  1.00999999 -0.157000005
  1.046 -0.184049994
  1.09399998 -0.142220005
  1.15999997 -0.0233200006
  1.25999999 -0.0113700004
  1.39300001 -0.0846899971
Zone T="phase=   8.10"
  0.658999979 -0.614899993
  0.68900001 -0.285129994
  0.712000012 -0.357910007
  0.734000027 -0.470349997
  0.754999995 -0.653079987
  0.777999997 -0.744279981
  0.800999999 -0.76918
  0.823000014 -0.691330016
  0.843999982 -0.535239995
  0.865999997 -0.352200001
  0.888999999 -0.197720006
  0.911000013 -0.138630003
  0.962000012 -0.113600001
  1.00999999 -0.149619997
  1.046 -0.180040002
  1.09399998 -0.14474
  1.15999997 -0.0300600007
  1.25999999 -0.0103000002
  1.39300001 -0.0821899995
Zone T="phase=  12.00"
  0.658999979 -0.625549972
  0.68900001 -0.29144001
  0.712000012 -0.342839986
  0.734000027 -0.453049988
  0.754999995 -0.639900029
  0.777999997 -0.735909998
  0.800999999 -0.769420028
  0.823000014 -0.702610016
  0.843999982 -0.550970018
  0.865999997 -0.365740001
  0.888999999 -0.203229994
  0.911000013 -0.139149994
  0.962000012 -0.107830003
  1.00999999 -0.142590001
  1.046 -0.175579995
  1.09399998 -0.146520004
  1.15999997 -0.0369700007
  1.25999999 -0.0093299998
  1.39300001 -0.0797799975
Zone T="phase=  15.90"
  0.658999979 -0.63586998
  0.68900001 -0.299320012
  0.712000012 -0.328920007
  0.734000027 -0.435330003
  0.754999995 -0.626470029
  0.777999997 -0.726790011
  0.800999999 -0.768140018
  0.823000014 -0.712559998
  0.843999982 -0.566120028
  0.865999997 -0.379619986
  0.888999999 -0.209509999
  0.911000013 -0.141039997
  0.962000012 -0.101769999
  1.00999999 -0.13594
  1.046 -0.170880005
  1.09399998 -0.147589996
  1.15999997 -0.0440099984
  1.25999999 -0.0087799998
  1.39300001 -0.0777200013
Zone T="phase=  19.80"
  0.658999979 -0.646309972
  0.68900001 -0.308290005
  0.712000012 -0.316489995
  0.734000027 -0.41771999
  0.754999995 -0.612770021
  0.777999997 -0.716859996
  0.800999999 -0.765479982
  0.823000014 -0.721099973
  0.843999982 -0.580929995
  0.865999997 -0.394169986
  0.888999999 -0.216519997
  0.911000013 -0.144240007
  0.962000012 -0.0966700017
  1.00999999 -0.129600003
  1.046 -0.166160002
  1.09399998 -0.148179993
  1.15999997 -0.0511699989
  1.25999999 -0.0085699996
  1.39300001 -0.0760200024
Zone T="phase=  23.70"
  0.658999979 -0.656930029
  0.68900001 -0.317919999
  0.712000012 -0.305830002
  0.734000027 -0.400819987
  0.754999995 -0.598800004
  0.777999997 -0.706130028
  0.800999999 -0.76157999
  0.823000014 -0.728439987
  0.843999982 -0.59570998
  0.865999997 -0.409729987
  0.888999999 -0.224419996
  0.911000013 -0.148420006
  0.962000012 -0.0926100016
  1.00999999 -0.12342
  1.046 -0.16133
  1.09399998 -0.148420006
  1.15999997 -0.0582100004
  1.25999999 -0.00880999956
  1.39300001 -0.0747099966
Zone T="phase=  27.60"
  0.658999979 -0.667540014
  0.68900001 -0.327800006
  0.712000012 -0.297170013
  0.734000027 -0.385120004
  0.754999995 -0.584510028
  0.777999997 -0.694639981
  0.800999999 -0.756579995
  0.823000014 -0.734619975
  0.843999982 -0.610660017
  0.865999997 -0.426539987
  0.888999999 -0.233490005
  0.911000013 -0.153369993
  0.962000012 -0.0890799984
  1.00999999 -0.117229998
  1.046 -0.156489998
  1.09399998 -0.148320004
  1.15999997 -0.0649899989
  1.25999999 -0.00973000005
  1.39300001 -0.0741000026
Zone T="phase=  31.50"
  0.658999979 -0.678309977
  0.68900001 -0.337590009
  0.712000012 -0.290580004
  0.734000027 -0.370909989
  0.754999995 -0.56990999
  0.777999997 -0.682359993
  0.800999999 -0.750530005
  0.823000014 -0.73961997
  0.843999982 -0.625569999
  0.865999997 -0.444519997
  0.888999999 -0.243709996
  0.911000013 -0.159050003
  0.962000012 -0.0858199969
  1.00999999 -0.110940002
  1.046 -0.151580006
  1.09399998 -0.148179993
  1.15999997 -0.0716599971
  1.25999999 -0.0111100003
  1.39300001 -0.0738499984
Zone T="phase=  35.40"
  0.658999979 -0.688759983
  0.68900001 -0.346989989
  0.712000012 -0.286089987
  0.734000027 -0.358370006
  0.754999995 -0.555019975
  0.777999997 -0.669250011
  0.800999999 -0.743350029
  0.823000014 -0.743359983
  0.843999982 -0.640110016
  0.865999997 -0.463149995
  0.888999999 -0.254869998
  0.911000013 -0.165089995
  0.962000012 -0.0820700005
  1.00999999 -0.104570001
  1.046 -0.146380007
  1.09399998 -0.148190007
  1.15999997 -0.0780000016
  1.25999999 -0.0130000003
  1.39300001 -0.0740799978
Zone T="phase=  39.30"
  0.658999979 -0.698379993
  0.68900001 -0.35571
  0.712000012 -0.283609986
  0.734000027 -0.347530007
  0.754999995 -0.539820015
  0.777999997 -0.655340016
  0.800999999 -0.734950006
  0.823000014 -0.745689988
  0.843999982 -0.653829992
  0.865999997 -0.481869996
  0.888999999 -0.266790003
  0.911000013 -0.171550006
  0.962000012 -0.0779500008
  1.00999999 -0.0980900005
  1.046 -0.14102
  1.09399998 -0.148220003
  1.15999997 -0.0839599967
  1.25999999 -0.0152500002
  1.39300001 -0.0745799989
Zone T="phase=  43.20"
  0.658999979 -0.707379997
  0.68900001 -0.363519996
  0.712000012 -0.282979995
  0.734000027 -0.338279992
  0.754999995 -0.524320006
  0.777999997 -0.640569985
  0.800999999 -0.72517997
  0.823000014 -0.746410012
  0.843999982 -0.666350007
  0.865999997 -0.5
  0.888999999 -0.27926001
  0.911000013 -0.178670004
  0.962000012 -0.0738900006
  1.00999999 -0.0917700008
  1.046 -0.135299996
  1.09399998 -0.148010001
  1.15999997 -0.0895700008
  1.25999999 -0.0178299993
  1.39300001 -0.0749199986
Zone T="phase=  47.10"
  0.658999979 -0.716009974
  0.68900001 -0.370279998
  0.712000012 -0.283989996
  0.734000027 -0.330480009
  0.754999995 -0.508520007
  0.777999997 -0.624909997
  0.800999999 -0.71390003
  0.823000014 -0.745180011
  0.843999982 -0.677339971
  0.865999997 -0.516799986
  0.888999999 -0.291960001
  0.911000013 -0.186210006
  0.962000012 -0.0699900016
  1.00999999 -0.0858400017
  1.046 -0.129069999
  1.09399998 -0.147180006
  1.15999997 -0.094630003
  1.25999999 -0.0206400007
  1.39300001 -0.0752499998
Zone T="phase=  51.00"
  0.658999979 -0.724009991
  0.68900001 -0.375970006
  0.712000012 -0.286419988
  0.734000027 -0.32396999
  0.754999995 -0.492489994
  0.777999997 -0.608399987
  0.800999999 -0.70104003
  0.823000014 -0.741890013
  0.843999982 -0.686450005
  0.865999997 -0.532289982
  0.888999999 -0.304859996
  0.911000013 -0.194159999
  0.962000012 -0.0667200014
  1.00999999 -0.0799700022
  1.046 -0.122539997
  1.09399998 -0.145459995
  1.15999997 -0.0991600007
  1.25999999 -0.02355
  1.39300001 -0.0749899969
Zone T="phase=  54.90"
  0.658999979 -0.730939984
  0.68900001 -0.380620003
  0.712000012 -0.290019989
  0.734000027 -0.318540007
  0.754999995 -0.476319999
  0.777999997 -0.591099977
  0.800999999 -0.686630011
  0.823000014 -0.736750007
  0.843999982 -0.693400025
  0.865999997 -0.546880007
  0.888999999 -0.318230003
  0.911000013 -0.202790007
  0.962000012 -0.0640999973
  1.00999999 -0.0741000026
  1.046 -0.115560003
  1.09399998 -0.142900005
  1.15999997 -0.103090003
  1.25999999 -0.0266600009
  1.39300001 -0.074000001
Zone T="phase=  58.80"
  0.658999979 -0.737160027
  0.68900001 -0.38429001
  0.712000012 -0.294550002
  0.734000027 -0.314020008
  0.754999995 -0.460079998
  0.777999997 -0.573109984
  0.800999999 -0.670769989
  0.823000014 -0.729870021
  0.843999982 -0.698279977
  0.865999997 -0.560660005
  0.888999999 -0.332260013
  0.911000013 -0.21221
  0.962000012 -0.0617699996
  1.00999999 -0.0684399977
  1.046 -0.108319998
  1.09399998 -0.139740005
  1.15999997 -0.1061
  1.25999999 -0.0295100007
  1.39300001 -0.0722799972
Zone T="phase=  62.70"
  0.658999979 -0.742990017
  0.68900001 -0.387140006
  0.712000012 -0.299769998
  0.734000027 -0.310310006
  0.754999995 -0.443919986
  0.777999997 -0.554579973
  0.800999999 -0.653689981
  0.823000014 -0.721390009
  0.843999982 -0.701370001
  0.865999997 -0.573549986
  0.888999999 -0.346890002
  0.911000013 -0.222530007
  0.962000012 -0.0596599989
  1.00999999 -0.0626699999
  1.046 -0.101180002
  1.09399998 -0.136000007
  1.15999997 -0.108039998
  1.25999999 -0.0320999995
  1.39300001 -0.0695400015
Zone T="phase=  66.60"
  0.658999979 -0.747990012
  0.68900001 -0.389340013
  0.712000012 -0.305500001
  0.734000027 -0.30735001
  0.754999995 -0.427960008
  0.777999997 -0.535669982
  0.800999999 -0.635710001
  0.823000014 -0.711459994
  0.843999982 -0.702820003
  0.865999997 -0.585399985
  0.888999999 -0.36206001
  0.911000013 -0.233689994
  0.962000012 -0.0579399988
  1.00999999 -0.0568300001
  1.046 -0.0938600004
  1.09399998 -0.131469995
  1.15999997 -0.109099999
  1.25999999 -0.0346099995
  1.39300001 -0.0662499964
Zone T="phase=  70.50"
  0.658999979 -0.751529992
  0.68900001 -0.391070008
  0.712000012 -0.311610013
  0.734000027 -0.305110008
  0.754999995 -0.412349999
  0.777999997 -0.516539991
  0.800999999 -0.617160022
  0.823000014 -0.700190008
  0.843999982 -0.702709973
  0.865999997 -0.596210003
  0.888999999 -0.37755999
  0.911000013 -0.245340005
  0.962000012 -0.0571699999
  1.00999999 -0.0512100011
  1.046 -0.0863699988
  1.09399998 -0.126090005
  1.15999997 -0.109399997
  1.25999999 -0.0365899988
  1.39300001 -0.0626500025
Zone T="phase=  74.40"
  0.658999979 -0.752759993
  0.68900001 -0.39249
  0.712000012 -0.31795001
  0.734000027 -0.303570002
  0.754999995 -0.397229999
  0.777999997 -0.49744001
  0.800999999 -0.598259985
  0.823000014 -0.68769002
  0.843999982 -0.700940013
  0.865999997 -0.60611999
  0.888999999 -0.392930001
  0.911000013 -0.257319987
  0.962000012 -0.0574500002
  1.00999999 -0.0454499982
  1.046 -0.0791599974
  1.09399998 -0.11992
  1.15999997 -0.109059997
  1.25999999 -0.0383099988
  1.39300001 -0.0587499999
Zone T="phase=  78.30"
  0.658999979 -0.75128001
  0.68900001 -0.393759996
  0.712000012 -0.324420005
  0.734000027 -0.302729994
  0.754999995 -0.382730007
  0.777999997 -0.478579998
  0.800999999 -0.579180002
  0.823000014 -0.674080014
  0.843999982 -0.697399974
  0.865999997 -0.614769995
  0.888999999 -0.40801999
  0.911000013 -0.26989001
  0.962000012 -0.0581899993
  1.00999999 -0.0394099988
  1.046 -0.0720399991
  1.09399998 -0.113260001
  1.15999997 -0.108400002
  1.25999999 -0.0400200002
  1.39300001 -0.0549499989
Zone T="phase=  82.20"
  0.658999979 -0.748130023
  0.68900001 -0.394959986
  0.712000012 -0.330909997
  0.734000027 -0.302540004
  0.754999995 -0.368939996
  0.777999997 -0.460119992
  0.800999999 -0.560119987
  0.823000014 -0.659560025
  0.843999982 -0.692089975
  0.865999997 -0.621789992
  0.888999999 -0.422989994
  0.911000013 -0.283069998
  0.962000012 -0.0590599999
  1.00999999 -0.0335000008
  1.046 -0.0648799986
  1.09399998 -0.106490001
  1.15999997 -0.107189998
  1.25999999 -0.0415600017
  1.39300001 -0.0513300002
Zone T="phase=  86.00"
  0.658999979 -0.746399999
  0.68900001 -0.396210015
  0.712000012 -0.337350011
  0.734000027 -0.302960008
  0.754999995 -0.355949998
  0.777999997 -0.442220002
  0.800999999 -0.541239977
  0.823000014 -0.644309998
  0.843999982 -0.684949994
  0.865999997 -0.627279997
  0.888999999 -0.43799001
  0.911000013 -0.296759993
  0.962000012 -0.0600599982
  1.00999999 -0.0282400008
  1.046 -0.0580499992
  1.09399998 -0.0995099992
  1.15999997 -0.105499998
  1.25999999 -0.0433599986
  1.39300001 -0.0478800014
Zone T="phase=  89.90"
  0.658999979 -0.751020014
  0.68900001 -0.397599995
  0.712000012 -0.343719989
  0.734000027 -0.303990006
  0.754999995 -0.343890011
  0.777999997 -0.425029993
  0.800999999 -0.52275002
  0.823000014 -0.628400028
  0.843999982 -0.676199973
  0.865999997 -0.631340027
  0.888999999 -0.452760011
  0.911000013 -0.311140001
  0.962000012 -0.0616200007
  1.00999999 -0.0236000009
  1.046 -0.0513599999
  1.09399998 -0.0925299972
  1.15999997 -0.103820004
  1.25999999 -0.0456800014
  1.39300001 -0.0448100008
Zone T="phase=  93.80"
  0.658999979 -0.765879989
  0.68900001 -0.399269998
  0.712000012 -0.350050002
  0.734000027 -0.305689991
  0.754999995 -0.332850009
  0.777999997 -0.408670008
  0.800999999 -0.504859984
  0.823000014 -0.611989975
  0.843999982 -0.666350007
  0.865999997 -0.634109974
  0.888999999 -0.46687001
  0.911000013 -0.326119989
  0.962000012 -0.06391
  1.00999999 -0.0190999992
  1.046 -0.044569999
  1.09399998 -0.0858699977
  1.15999997 -0.101970002
  1.25999999 -0.0484599993
  1.39300001 -0.042369999
Zone T="phase=  97.70"
  0.658999979 -0.790329993
  0.68900001 -0.401380002
  0.712000012 -0.356400013
  0.734000027 -0.308129996
  0.754999995 -0.322910011
  0.777999997 -0.393290013
  0.800999999 -0.487679988
  0.823000014 -0.595260024
  0.843999982 -0.655640006
  0.865999997 -0.635550022
  0.888999999 -0.480260015
  0.911000013 -0.341340005
  0.962000012 -0.0670600012
  1.00999999 -0.0145199997
  1.046 -0.037870001
  1.09399998 -0.0793199986
  1.15999997 -0.0998599976
  1.25999999 -0.0518199988
  1.39300001 -0.0407200009
Zone T="phase= 101.60"
  0.658999979 -0.818690002
  0.68900001 -0.404089987
  0.712000012 -0.36285001
  0.734000027 -0.311419994
  0.754999995 -0.314150006
  0.777999997 -0.379020005
  0.800999999 -0.471359998
  0.823000014 -0.578360021
  0.843999982 -0.644089997
  0.865999997 -0.63556999
  0.888999999 -0.493039995
  0.911000013 -0.356480002
  0.962000012 -0.071510002
  1.00999999 -0.0102399997
  1.046 -0.0313399993
  1.09399998 -0.0730900019
  1.15999997 -0.0978199989
  1.25999999 -0.0556900017
  1.39300001 -0.0396200009
Zone T="phase= 105.50"
  0.658999979 -0.84404999
  0.68900001 -0.407620013
  0.712000012 -0.369500011
  0.734000027 -0.315710008
  0.754999995 -0.30667001
  0.777999997 -0.365979999
  0.800999999 -0.455960006
  0.823000014 -0.561529994
  0.843999982 -0.631950021
  0.865999997 -0.634230018
  0.888999999 -0.505119979
  0.911000013 -0.371580005
  0.962000012 -0.0772600025
  1.00999999 -0.00664999988
  1.046 -0.0251499992
  1.09399998 -0.0674600005
  1.15999997 -0.0958100036
  1.25999999 -0.0601200014
  1.39300001 -0.0387700014
Zone T="phase= 109.40"
  0.658999979 -0.861930013
  0.68900001 -0.412090003
  0.712000012 -0.37647
  0.734000027 -0.321119994
  0.754999995 -0.30054
  0.777999997 -0.354299992
  0.800999999 -0.441650003
  0.823000014 -0.545050025
  0.843999982 -0.61947
  0.865999997 -0.631529987
  0.888999999 -0.516300023
  0.911000013 -0.386900008
  0.962000012 -0.0839599967
  1.00999999 -0.00359999994
  1.046 -0.0192099996
  1.09399998 -0.0623399988
  1.15999997 -0.0936100036
  1.25999999 -0.0649700016
  1.39300001 -0.038279999
Zone T="phase= 113.30"
  0.658999979 -0.871519983
  0.68900001 -0.41760999
  0.712000012 -0.383830011
  0.734000027 -0.327639997
  0.754999995 -0.295789987
  0.777999997 -0.344080001
  0.800999999 -0.428600013
  0.823000014 -0.529169977
  0.843999982 -0.606830001
  0.865999997 -0.627510011
  0.888999999 -0.526549995
  0.911000013 -0.402429998
  0.962000012 -0.091430001
  1.00999999 -0.000850000011
  1.046 -0.0136599997
  1.09399998 -0.0576299988
  1.15999997 -0.0911799967
  1.25999999 -0.069810003
  1.39300001 -0.0379600003
Zone T="phase= 117.20"
  0.658999979 -0.874239981
  0.68900001 -0.424239993
  0.712000012 -0.391570002
  0.734000027 -0.335200012
  0.754999995 -0.29242
  0.777999997 -0.335390002
  0.800999999 -0.41681999
  0.823000014 -0.51402998
  0.843999982 -0.594099998
  0.865999997 -0.622380018
  0.888999999 -0.53579998
  0.911000013 -0.417659998
  0.962000012 -0.0997100025
  1.00999999  0.00149000005
  1.046 -0.0088200001
  1.09399998 -0.0531300008
  1.15999997 -0.0887899995
  1.25999999 -0.0743300021
  1.39300001 -0.0373199992
Zone T="phase= 121.10"
  0.658999979 -0.871590018
  0.68900001 -0.432080001
  0.712000012 -0.399679989
  0.734000027 -0.343690008
  0.754999995 -0.290450007
  0.777999997 -0.328229994
  0.800999999 -0.406199992
  0.823000014 -0.499570012
  0.843999982 -0.581170022
  0.865999997 -0.616270006
  0.888999999 -0.544030011
  0.911000013 -0.432209998
  0.962000012 -0.10892
  1.00999999  0.00301999995
  1.046 -0.00431000022
  1.09399998 -0.0485499986
  1.15999997 -0.0864100009
  1.25999999 -0.0780899972
  1.39300001 -0.0364999995
Zone T="phase= 125.00"
  0.658999979 -0.865019977
  0.68900001 -0.441249996
  0.712000012 -0.408080012
  0.734000027 -0.352890015
  0.754999995 -0.289819986
  0.777999997 -0.322569996
  0.800999999 -0.396580011
  0.823000014 -0.485659987
  0.843999982 -0.568149984
  0.865999997 -0.609099984
  0.888999999 -0.551240027
  0.911000013 -0.445950001
  0.962000012 -0.118869998
  1.00999999  0.00364000001
  1.046 -0.000150000007
  1.09399998 -0.0439900011
  1.15999997 -0.0835499987
  1.25999999 -0.081129998
  1.39300001 -0.0353900008
Zone T="phase= 128.90"
  0.658999979 -0.855539978
  0.68900001 -0.451990008
  0.712000012 -0.416669995
  0.734000027 -0.362560004
  0.754999995 -0.290470004
  0.777999997 -0.318360001
  0.800999999 -0.387809992
  0.823000014 -0.472270012
  0.843999982 -0.554960012
  0.865999997 -0.600799978
  0.888999999 -0.557009995
  0.911000013 -0.458310008
  0.962000012 -0.129480004
  1.00999999  0.00353999995
  1.046  0.00328000006
  1.09399998 -0.0395100005
  1.15999997 -0.0804900005
  1.25999999 -0.0834999979
  1.39300001 -0.0340400003
Zone T="phase= 132.80"
  0.658999979 -0.84355998
  0.68900001 -0.464590013
  0.712000012 -0.425390005
  0.734000027 -0.372429997
  0.754999995 -0.292329997
  0.777999997 -0.315479994
  0.800999999 -0.379810005
  0.823000014 -0.459470004
  0.843999982 -0.541289985
  0.865999997 -0.591409981
  0.888999999 -0.561169982
  0.911000013 -0.469040006
  0.962000012 -0.140740007
  1.00999999  0.00298999995
  1.046  0.00636
  1.09399998 -0.0348999985
  1.15999997 -0.0771299973
  1.25999999 -0.0851399973
  1.39300001 -0.0327499993
Zone T="phase= 136.70"
  0.658999979 -0.829789996
  0.68900001 -0.47942999
  0.712000012 -0.434130013
  0.734000027 -0.382270008
  0.754999995 -0.295309991
  0.777999997 -0.313809991
  0.800999999 -0.372489989
  0.823000014 -0.447239995
  0.843999982 -0.527029991
  0.865999997 -0.581110001
  0.888999999 -0.563679993
  0.911000013 -0.478190005
  0.962000012 -0.152710006
  1.00999999  0.0022799999
  1.046  0.00942000002
  1.09399998 -0.0302300006
  1.15999997 -0.0730400011
  1.25999999 -0.0863199979
  1.39300001 -0.0313000008
Zone T="phase= 140.60"
  0.658999979 -0.814830005
  0.68900001 -0.49684
  0.712000012 -0.44284001
  0.734000027 -0.391820014
  0.754999995 -0.299299985
  0.777999997 -0.313190013
  0.800999999 -0.365700006
  0.823000014 -0.435350001
  0.843999982 -0.512279987
  0.865999997 -0.569959998
  0.888999999 -0.564400017
  0.911000013 -0.485619992
  0.962000012 -0.165450007
  1.00999999  0.00153000001
  1.046  0.0123800002
  1.09399998 -0.0255299993
  1.15999997 -0.0688199997
  1.25999999 -0.0871699974
  1.39300001 -0.0301099997
Zone T="phase= 144.50"
  0.658999979 -0.799170017
  0.68900001 -0.51700002
  0.712000012 -0.451510012
  0.734000027 -0.400920004
  0.754999995 -0.30419001
  0.777999997 -0.313430011
  0.800999999 -0.359329998
  0.823000014 -0.423680007
  0.843999982 -0.497299999
  0.865999997 -0.558000028
  0.888999999 -0.563639998
  0.911000013 -0.491450012
  0.962000012 -0.178580001
  1.00999999  0.000910000002
  1.046  0.0154600004
  1.09399998 -0.0206799991
  1.15999997 -0.0643600002
  1.25999999 -0.0878600031
  1.39300001 -0.0293899998
Zone T="phase= 148.40"
  0.658999979 -0.783259988
  0.68900001 -0.539820015
  0.712000012 -0.460170001
  0.734000027 -0.409509987
  0.754999995 -0.309839994
  0.777999997 -0.314339995
  0.800999999 -0.353219986
  0.823000014 -0.412129998
  0.843999982 -0.482250005
  0.865999997 -0.545189977
  0.888999999 -0.561659992
  0.911000013 -0.495920002
  0.962000012 -0.192049995
  1.00999999  0.000339999999
  1.046  0.0191600006
  1.09399998 -0.0155300004
  1.15999997 -0.0593499988
  1.25999999 -0.0885299966
  1.39300001 -0.0288399998
Zone T="phase= 152.30"
  0.658999979 -0.767490029
  0.68900001 -0.56479001
  0.712000012 -0.468919992
  0.734000027 -0.417549998
  0.754999995 -0.316100001
  0.777999997 -0.31577
  0.800999999 -0.347299993
  0.823000014 -0.400730014
  0.843999982 -0.467240006
  0.865999997 -0.531490028
  0.888999999 -0.55844003
  0.911000013 -0.499190003
  0.962000012 -0.205819994
  1.00999999 -0.00033000001
  1.046  0.0234900005
  1.09399998 -0.00999000017
  1.15999997 -0.0543799996
  1.25999999 -0.0889500007
  1.39300001 -0.0286599994
Zone T="phase= 156.20"
  0.658999979 -0.752120018
  0.68900001 -0.591000021
  0.712000012 -0.477990001
  0.734000027 -0.42513001
  0.754999995 -0.322890013
  0.777999997 -0.317609996
  0.800999999 -0.341619998
  0.823000014 -0.389690012
  0.843999982 -0.452529997
  0.865999997 -0.517159998
  0.888999999 -0.554050028
  0.911000013 -0.501380026
  0.962000012 -0.219310001
  1.00999999 -0.00133999996
  1.046  0.0279099997
  1.09399998 -0.00413999986
  1.15999997 -0.0493800007
  1.25999999 -0.0890400037
  1.39300001 -0.0287599992
Zone T="phase= 160.10"
  0.658999979 -0.737280011
  0.68900001 -0.617259979
  0.712000012 -0.487670004
  0.734000027 -0.432469994
  0.754999995 -0.330089986
  0.777999997 -0.319730014
  0.800999999 -0.336270005
  0.823000014 -0.379130006
  0.843999982 -0.438239992
  0.865999997 -0.502529979
  0.888999999 -0.548539996
  0.911000013 -0.502319992
  0.962000012 -0.232570007
  1.00999999 -0.00332999998
  1.046  0.0323400013
  1.09399998  0.00200999994
  1.15999997 -0.0441100001
  1.25999999 -0.0890000015
  1.39300001 -0.0289099999
Zone T="phase= 164.00"
  0.658999979 -0.723200023
  0.68900001 -0.642170012
  0.712000012 -0.498290002
  0.734000027 -0.439839989
  0.754999995 -0.33761999
  0.777999997 -0.322070003
  0.800999999 -0.331279993
  0.823000014 -0.36917001
  0.843999982 -0.424389988
  0.865999997 -0.487760007
  0.888999999 -0.541830003
  0.911000013 -0.501649976
  0.962000012 -0.245780006
  1.00999999 -0.00681000017
  1.046  0.0367899984
  1.09399998  0.00851000007
  1.15999997 -0.038660001
  1.25999999 -0.0887899995
  1.39300001 -0.0292700008
Zone T="phase= 167.80"
  0.658999979 -0.709919989
  0.68900001 -0.664359987
  0.712000012 -0.510230005
  0.734000027 -0.447560012
  0.754999995 -0.345380008
  0.777999997 -0.324559987
  0.800999999 -0.326819986
  0.823000014 -0.359899998
  0.843999982 -0.411119998
  0.865999997 -0.473100007
  0.888999999 -0.534049988
  0.911000013 -0.499370009
  0.962000012 -0.258679986
  1.00999999 -0.0115700001
  1.046  0.0407800004
  1.09399998  0.0150800003
  1.15999997 -0.0331499986
  1.25999999 -0.0883800015
  1.39300001 -0.0296700001
Zone T="phase= 171.70"
  0.658999979 -0.697480023
  0.68900001 -0.682550013
  0.712000012 -0.523779988
  0.734000027 -0.455960006
  0.754999995 -0.353320003
  0.777999997 -0.327230006
  0.800999999 -0.323020011
  0.823000014 -0.351429999
  0.843999982 -0.398550004
  0.865999997 -0.458700001
  0.888999999 -0.525359988
  0.911000013 -0.496080011
  0.962000012 -0.271299988
  1.00999999 -0.0171000008
  1.046  0.0442599989
  1.09399998  0.0213099997
  1.15999997 -0.0278399996
  1.25999999 -0.0877500027
  1.39300001 -0.0302200001
Zone T="phase= 175.60"
  0.658999979 -0.685980022
  0.68900001 -0.695770025
  0.712000012 -0.539160013
  0.734000027 -0.465339988
  0.754999995 -0.361400008
  0.777999997 -0.330080003
  0.800999999 -0.319940001
  0.823000014 -0.343879998
  0.843999982 -0.386799991
  0.865999997 -0.44472
  0.888999999 -0.515890002
  0.911000013 -0.492089987
  0.962000012 -0.283930004
  1.00999999 -0.0234399997
  1.046  0.0471000001
  1.09399998  0.0273000002
  1.15999997 -0.0230800007
  1.25999999 -0.0869600028
  1.39300001 -0.0312899984
Zone T="phase= 179.50"
  0.658999979 -0.675329983
  0.68900001 -0.703400016
  0.712000012 -0.556450009
  0.734000027 -0.476020008
  0.754999995 -0.369610012
  0.777999997 -0.333189994
  0.800999999 -0.317669988
  0.823000014 -0.33724001
  0.843999982 -0.375970006
  0.865999997 -0.431279987
  0.888999999 -0.505810022
  0.911000013 -0.487639993
  0.962000012 -0.296460003
  1.00999999 -0.0307100005
  1.046  0.048969999
  1.09399998  0.0330700018
  1.15999997 -0.0189399999
  1.25999999 -0.086029999
  1.39300001 -0.0328599997
Zone T="phase= 183.40"
  0.658999979 -0.665459991
  0.68900001 -0.70520997
  0.712000012 -0.575580001
  0.734000027 -0.48822999
  0.754999995 -0.377959996
  0.777999997 -0.336589992
  0.800999999 -0.316249996
  0.823000014 -0.331550002
  0.843999982 -0.365999997
  0.865999997 -0.418449998
  0.888999999 -0.495409995
  0.911000013 -0.482820004
  0.962000012 -0.308189988
  1.00999999 -0.0384400003
  1.046  0.0499499999
  1.09399998  0.0379999988
  1.15999997 -0.0152599998
  1.25999999 -0.0848800018
  1.39300001 -0.0348999985
Zone T="phase= 187.30"
  0.658999979 -0.656279981
  0.68900001 -0.701309979
  0.712000012 -0.596329987
  0.734000027 -0.502139986
  0.754999995 -0.386440009
  0.777999997 -0.340330005
  0.800999999 -0.315730006
  0.823000014 -0.326629996
  0.843999982 -0.356770009
  0.865999997 -0.406269997
  0.888999999 -0.484750003
  0.911000013 -0.477030009
  0.962000012 -0.31852001
  1.00999999 -0.0465199985
  1.046  0.0498900004
  1.09399998  0.0418700017
  1.15999997 -0.0119700003
  1.25999999 -0.0835099965
  1.39300001 -0.0372599997
Zone T="phase= 191.20"
  0.658999979 -0.647920012
  0.68900001 -0.692189991
  0.712000012 -0.618300021
  0.734000027 -0.517820001
  0.754999995 -0.395130008
  0.777999997 -0.344500005
  0.800999999 -0.316159993
  0.823000014 -0.322270006
  0.843999982 -0.348219991
  0.865999997 -0.394499987
  0.888999999 -0.473760009
  0.911000013 -0.470019996
  0.962000012 -0.327749997
  1.00999999 -0.0550200008
  1.046  0.04868
  1.09399998  0.0450799987
  1.15999997 -0.00880999956
  1.25999999 -0.0816700011
  1.39300001 -0.0397300012
Zone T="phase= 195.10"
  0.658999979 -0.640339971
  0.68900001 -0.678619981
  0.712000012 -0.640900016
  0.734000027 -0.535350025
  0.754999995 -0.404060006
  0.777999997 -0.349139988
  0.800999999 -0.317440003
  0.823000014 -0.318430007
  0.843999982 -0.340189993
  0.865999997 -0.382970005
  0.888999999 -0.462489992
  0.911000013 -0.46213001
  0.962000012 -0.336389989
  1.00999999 -0.0640200004
  1.046  0.0466799997
  1.09399998  0.0478399992
  1.15999997 -0.00555999996
  1.25999999 -0.0793400034
  1.39300001 -0.0423600003
Zone T="phase= 199.00"
  0.658999979 -0.633390009
  0.68900001 -0.661620021
  0.712000012 -0.663460016
  0.734000027 -0.554700017
  0.754999995 -0.41328001
  0.777999997 -0.354270011
  0.800999999 -0.319400012
  0.823000014 -0.314960003
  0.843999982 -0.332500011
  0.865999997 -0.371569991
  0.888999999 -0.45104
  0.911000013 -0.453700006
  0.962000012 -0.344159991
  1.00999999 -0.0736500025
  1.046  0.0438500009
  1.09399998  0.0500999987
  1.15999997 -0.00206999993
  1.25999999 -0.0767500028
  1.39300001 -0.0450900011
Zone T="phase= 202.90"
  0.658999979 -0.627020001
  0.68900001 -0.642329991
  0.712000012 -0.685249984
  0.734000027 -0.575689971
  0.754999995 -0.422879994
  0.777999997 -0.359939992
  0.800999999 -0.321969986
  0.823000014 -0.311780006
  0.843999982 -0.325069994
  0.865999997 -0.360289991
  0.888999999 -0.439410001
  0.911000013 -0.444819987
  0.962000012 -0.350930005
  1.00999999 -0.0838700011
  1.046  0.0400799997
  1.09399998  0.0522300005
  1.15999997  0.00139999995
  1.25999999 -0.0739300027
  1.39300001 -0.0476600006
Zone T="phase= 206.80"
  0.658999979 -0.621010005
  0.68900001 -0.621949971
  0.712000012 -0.705500007
  0.734000027 -0.598049998
  0.754999995 -0.432920009
  0.777999997 -0.366149992
  0.800999999 -0.325040013
  0.823000014 -0.308939993
  0.843999982 -0.317979991
  0.865999997 -0.349339992
  0.888999999 -0.427590013
  0.911000013 -0.43542999
  0.962000012 -0.356819987
  1.00999999 -0.0944999978
  1.046  0.0357900001
  1.09399998  0.0545100011
  1.15999997  0.00477
  1.25999999 -0.0712099969
  1.39300001 -0.0502300002
Zone T="phase= 210.70"
  0.658999979 -0.615320027
  0.68900001 -0.601620018
  0.712000012 -0.723429978
  0.734000027 -0.621330023
  0.754999995 -0.443500012
  0.777999997 -0.372920007
  0.800999999 -0.328550011
  0.823000014 -0.306400001
  0.843999982 -0.311260015
  0.865999997 -0.33882001
  0.888999999 -0.415589988
  0.911000013 -0.425520003
  0.962000012 -0.361409992
  1.00999999 -0.105219997
  1.046  0.0309599992
  1.09399998  0.0564199984
  1.15999997  0.0086099999
  1.25999999 -0.0686099976
  1.39300001 -0.0529300012
Zone T="phase= 214.60"
  0.658999979 -0.609849989
  0.68900001 -0.582369983
  0.712000012 -0.73834002
  0.734000027 -0.644919991
  0.754999995 -0.454710007
  0.777999997 -0.380309999
  0.800999999 -0.332370013
  0.823000014 -0.304199994
  0.843999982 -0.304870009
  0.865999997 -0.328700006
  0.888999999 -0.403549999
  0.911000013 -0.415120006
  0.962000012 -0.36451
  1.00999999 -0.11603
  1.046  0.0254800003
  1.09399998  0.0579300001
  1.15999997  0.0128199998
  1.25999999 -0.0662899986
  1.39300001 -0.0555600002
Zone T="phase= 218.50"
  0.658999979 -0.604489982
  0.68900001 -0.564999998
  0.712000012 -0.749679983
  0.734000027 -0.668259978
  0.754999995 -0.466659993
  0.777999997 -0.388359994
  0.800999999 -0.336380005
  0.823000014 -0.302320004
  0.843999982 -0.298819989
  0.865999997 -0.318989992
  0.888999999 -0.391609997
  0.911000013 -0.404289991
  0.962000012 -0.36631
  1.00999999 -0.126929998
  1.046  0.0197100006
  1.09399998  0.0595399998
  1.15999997  0.0170600004
  1.25999999 -0.0644700006
  1.39300001 -0.0584000014
Zone T="phase= 222.40"
  0.658999979 -0.599309981
  0.68900001 -0.550140023
  0.712000012 -0.757000029
  0.734000027 -0.690720022
  0.754999995 -0.479409993
  0.777999997 -0.397119999
  0.800999999 -0.340579987
  0.823000014 -0.300830007
  0.843999982 -0.293150008
  0.865999997 -0.309579998
  0.888999999 -0.379759997
  0.911000013 -0.393279999
  0.962000012 -0.366899997
  1.00999999 -0.137620002
  1.046  0.0132999998
  1.09399998  0.0610999987
  1.15999997  0.0212600008